#include "./DOPC_vis.itp"
#include "./DOPE_vis.itp"
#include "./DOPG_vis.itp"
#include "./POPC_vis.itp"
#include "./NA+_vis.itp"
#include "./CL-_vis.itp"
#include "./MOTO_vis.itp"
[ system ]
; name
INSANE! Membrane UpperLeaflet>DOPG:DOPC:DOPE:POPC=1:1:1:1 LowerLeaflet>POPC:DOPC:DOPG:DOPE=1:1:1:1


[ molecules ]
DOPG_vis	42
DOPC_vis	42
DOPE_vis	42
POPC_vis	42
POPC_vis	42
DOPC_vis	42
DOPG_vis	42
DOPE_vis	42
NA+_vis	91
CL-_vis	7
MOTO_vis	5
